 *******************************************************************************
 ** Cite this program as: MOPAC2016, Version: 21.291 , James J. P. Stewart,   **
 **                           web-site: HTTP://OpenMOPAC.net.                 **
 *******************************************************************************
 **                                                                           **
 **                                MOPAC2016                                  **
 **                                                                           **
 *******************************************************************************

                              PM6-DH+ CALCULATION RESULTS

 *******************************************************************************
 *  CALCULATION DONE:                                Sat Jun  1 05:03:28 2024  *
 *  PM6-DH+    - CORRECT DISPERSION AND HYDROGEN BOND TERMS USING PM6-DH+
 *  OPT        - OPTIMIZE COORDINATES OF ALL ATOMS
 *  T=         - A TIME OF 172800.0 SECONDS REQUESTED
 *  DUMP=N     - RESTART FILE WRITTEN EVERY 7200.0 SECONDS REQUESTED
 *******************************************************************************
PM6-DH+ OPT
 18

   ATOM   CHEMICAL          X               Y               Z
  NUMBER   SYMBOL      (ANGSTROMS)     (ANGSTROMS)     (ANGSTROMS)
 
     1       C         -2.64322100  *  -0.28485500  *  -0.17909600  *
     2       C         -1.80223700  *   0.82331600  *  -0.20506000  *
     3       C         -0.39984200  *   0.67608000  *  -0.08571500  *
     4       C          0.55308800  *   1.73180200  *  -0.09883400  *
     5       C          1.92372400  *   1.47529100  *   0.02698600  *
     6       C          2.36854300  *   0.16506200  *   0.16783700  *
     7       C          1.44062600  *  -0.87442000  *   0.18154700  *
     8       C          0.07101300  *  -0.64731100  *   0.05820200  *
     9       N         -0.73994800  *  -1.72751600  *   0.08418300  *
    10       C         -2.06906800  *  -1.52884000  *  -0.03374500  *
    11       O          1.85729200  *  -2.18182500  *   0.32001200  *
    12       I          4.41987400  *  -0.17603900  *   0.35265400  *
    13       I          0.01119700  *   3.76001400  *  -0.30564600  *
    14       H         -3.71815400  *  -0.17481200  *  -0.27034400  *
    15       H         -2.26012700  *   1.80186300  *  -0.31987500  *
    16       H          2.64018600  *   2.29356900  *   0.01512100  *
    17       H         -2.67871800  *  -2.42789800  *  -0.00712100  *
    18       H          1.02577100  *  -2.70348100  *   0.29889200  *
 


          CARTESIAN COORDINATES 

    NO.       ATOM           X           Y           Z

     1         C         -2.6432     -0.2849     -0.1791
     2         C         -1.8022      0.8233     -0.2051
     3         C         -0.3998      0.6761     -0.0857
     4         C          0.5531      1.7318     -0.0988
     5         C          1.9237      1.4753      0.0270
     6         C          2.3685      0.1651      0.1678
     7         C          1.4406     -0.8744      0.1815
     8         C          0.0710     -0.6473      0.0582
     9         N         -0.7399     -1.7275      0.0842
    10         C         -2.0691     -1.5288     -0.0337
    11         O          1.8573     -2.1818      0.3200
    12         I          4.4199     -0.1760      0.3527
    13         I          0.0112      3.7600     -0.3056
    14         H         -3.7182     -0.1748     -0.2703
    15         H         -2.2601      1.8019     -0.3199
    16         H          2.6402      2.2936      0.0151
    17         H         -2.6787     -2.4279     -0.0071
    18         H          1.0258     -2.7035      0.2989

 General Reference for PM6:
 "Optimization of Parameters for Semiempirical Methods V: Modification of NDDO Approximations
 and Application to 70 Elements", J. J. P. Stewart, J. Mol. Mod., 13, 1173-1213 (2007)
 URL: https://link.springer.com/article/10.1007/s00894-007-0233-4

 Reference for PM6-DH+:
 "Third-Generation Hydrogen-Bonding Corrections for Semiempirical QM Methods and Force Fields"
 Martin Korth, J. Chem. Theory Comput., 6 (12), pp 3808-3816 (2010)
 URL: http://pubs.acs.org/doi/abs/10.1021/ct100408b

           Empirical Formula: C9 H5 N O I2  =    18 atoms



      MOLECULAR POINT GROUP   :   Cs  


      RHF CALCULATION, NO. OF DOUBLY OCCUPIED LEVELS = 33


          Geometry optimization using EF

          DIAGONAL MATRIX USED AS START HESSIAN

 CYCLE:     1 TIME:   0.014 TIME LEFT:  2.00D  GRAD.:   150.848 HEAT:  44.52218
 CYCLE:     2 TIME:   0.014 TIME LEFT:  2.00D  GRAD.:    80.199 HEAT:  39.71433
 CYCLE:     3 TIME:   0.008 TIME LEFT:  2.00D  GRAD.:    86.866 HEAT:  39.04698
 CYCLE:     4 TIME:   0.010 TIME LEFT:  2.00D  GRAD.:    85.596 HEAT:  39.00154
 CYCLE:     5 TIME:   0.008 TIME LEFT:  2.00D  GRAD.:    43.117 HEAT:  37.57685
 CYCLE:     6 TIME:   0.014 TIME LEFT:  2.00D  GRAD.:    17.523 HEAT:  37.08067
 CYCLE:     7 TIME:   0.010 TIME LEFT:  2.00D  GRAD.:    25.019 HEAT:  37.05968
 CYCLE:     8 TIME:   0.008 TIME LEFT:  2.00D  GRAD.:    15.355 HEAT:  36.86553
 CYCLE:     9 TIME:   0.010 TIME LEFT:  2.00D  GRAD.:    24.441 HEAT:  36.85422
 CYCLE:    10 TIME:   0.008 TIME LEFT:  2.00D  GRAD.:    14.089 HEAT:  36.63081
 CYCLE:    11 TIME:   0.006 TIME LEFT:  2.00D  GRAD.:    19.257 HEAT:  36.53696
 CYCLE:    12 TIME:   0.006 TIME LEFT:  2.00D  GRAD.:    13.164 HEAT:  36.35546
 CYCLE:    13 TIME:   0.008 TIME LEFT:  2.00D  GRAD.:    16.367 HEAT:  36.26846
 CYCLE:    14 TIME:   0.006 TIME LEFT:  2.00D  GRAD.:    12.366 HEAT:  36.17723
 CYCLE:    15 TIME:   0.008 TIME LEFT:  2.00D  GRAD.:    15.421 HEAT:  36.15824
 CYCLE:    16 TIME:   0.006 TIME LEFT:  2.00D  GRAD.:     8.113 HEAT:  36.08916
 CYCLE:    17 TIME:   0.006 TIME LEFT:  2.00D  GRAD.:     6.647 HEAT:  36.06685
 CYCLE:    18 TIME:   0.008 TIME LEFT:  2.00D  GRAD.:     2.642 HEAT:  36.04337
 CYCLE:    19 TIME:   0.006 TIME LEFT:  2.00D  GRAD.:     2.735 HEAT:  36.03647
 CYCLE:    20 TIME:   0.006 TIME LEFT:  2.00D  GRAD.:     1.672 HEAT:  36.03117
 CYCLE:    21 TIME:   0.008 TIME LEFT:  2.00D  GRAD.:     2.086 HEAT:  36.02921
 CYCLE:    22 TIME:   0.006 TIME LEFT:  2.00D  GRAD.:     1.376 HEAT:  36.02670
 CYCLE:    23 TIME:   0.008 TIME LEFT:  2.00D  GRAD.:     0.957 HEAT:  36.02520

     GRADIENT =  0.95733 IS LESS THAN CUTOFF =  1.00000



 -------------------------------------------------------------------------------
 PM6-DH+ OPT
 18



     GEOMETRY OPTIMISED USING EIGENVECTOR FOLLOWING (EF).     
     SCF FIELD WAS ACHIEVED                                   


                              PM6-DH+ CALCULATION
                                                       MOPAC2016 (Version: 21.291 )
                                                       Sat Jun  1 05:03:28 2024




          FINAL HEAT OF FORMATION =         36.02520 KCAL/MOL =     150.72945 KJ/MOL


          COSMO AREA              =        229.64 SQUARE ANGSTROMS
          COSMO VOLUME            =        247.62 CUBIC ANGSTROMS

          GRADIENT NORM           =          0.95733          =       0.22564 PER ATOM
          IONIZATION POTENTIAL    =          9.025418 EV
          HOMO LUMO ENERGIES (EV) =         -9.025 -1.246
          NO. OF FILLED LEVELS    =         33
          MOLECULAR WEIGHT        =        396.9536         POINT GROUP:  Cs  

          MOLECULAR DIMENSIONS (Angstroms)

            Atom       Atom       Distance
            H    14    I    12     8.18655
            H    18    I    13     6.59723
            H    17    H    18     0.03773


          SCF CALCULATIONS        =         26
 
          WALL-CLOCK TIME         =          0.199 SECONDS
          COMPUTATION TIME        =          0.422 SECONDS




   ATOM   CHEMICAL          X               Y               Z
  NUMBER   SYMBOL      (ANGSTROMS)     (ANGSTROMS)     (ANGSTROMS)
 
     1       C         -2.65170694  *  -0.21588669  *  -0.19342796  *
     2       C         -1.81692497  *   0.87082827  *  -0.21094334  *
     3       C         -0.40064828  *   0.68717589  *  -0.08332524  *
     4       C          0.56517338  *   1.73274657  *  -0.09578323  *
     5       C          1.91028491  *   1.47620026  *   0.02503812  *
     6       C          2.37434168  *   0.14721715  *   0.17166362  *
     7       C          1.47832632  *  -0.90555053  *   0.19589611  *
     8       C          0.05775103  *  -0.64982801  *   0.06271128  *
     9       N         -0.79190216  *  -1.74683017  *   0.08108100  *
    10       C         -2.09632660  *  -1.53118980  *  -0.04551942  *
    11       O          1.95699210  *  -2.16209415  *   0.34456709  *
    12       I          4.43029340  *  -0.18653320  *   0.34550167  *
    13       I         -0.02349189  *   3.74389948  *  -0.30396312  *
    14       H         -3.73110528  *  -0.10639024  *  -0.29067963  *
    15       H         -2.21160589  *   1.88750798  *  -0.32226447  *
    16       H          2.64694258  *   2.29054199  *   0.00987677  *
    17       H         -2.75587313  *  -2.40854142  *  -0.03268006  *
    18       H          1.20655018  *  -2.84284988  *   0.34758752  *

                             CARTESIAN COORDINATES

   1    C       -2.651706940    -0.215886688    -0.193427965
   2    C       -1.816924970     0.870828270    -0.210943335
   3    C       -0.400648285     0.687175894    -0.083325236
   4    C        0.565173379     1.732746568    -0.095783233
   5    C        1.910284914     1.476200262     0.025038118
   6    C        2.374341681     0.147217147     0.171663622
   7    C        1.478326315    -0.905550527     0.195896107
   8    C        0.057751026    -0.649828010     0.062711280
   9    N       -0.791902165    -1.746830169     0.081081000
  10    C       -2.096326599    -1.531189801    -0.045519418
  11    O        1.956992101    -2.162094150     0.344567089
  12    I        4.430293402    -0.186533199     0.345501673
  13    I       -0.023491894     3.743899480    -0.303963124
  14    H       -3.731105279    -0.106390239    -0.290679632
  15    H       -2.211605895     1.887507977    -0.322264473
  16    H        2.646942578     2.290541990     0.009876767
  17    H       -2.755873126    -2.408541423    -0.032680057
  18    H        1.206550182    -2.842849882     0.347587521


           Empirical Formula: C9 H5 N O I2  =    18 atoms



      MOLECULAR POINT GROUP   :   Cs  


                  EIGENVALUES  
 -32.68236 -31.57003 -30.48146 -28.22552 -26.76066 -26.24638 -23.46478 -23.01156
 -21.87778 -20.13776 -19.60039 -19.33897 -18.59559 -17.59239 -16.71790 -15.96462
 -15.86911 -15.18110 -14.54250 -14.23469 -14.13108 -13.80235 -13.17970 -12.69689
 -12.12083 -11.60522 -10.98765 -10.88241 -10.47007 -10.29327 -10.06256  -9.75093
  -9.02542  -1.24634  -1.19996  -1.01296  -0.99562   0.07486   0.94061   1.79417
   2.03153   2.52214   2.84814   3.40901   3.54212   3.58742   3.62503   3.91629
   4.23771   4.33461   4.66373   4.81685   4.99133   5.21991   5.33317   5.39950
   5.51832 109.39194 109.41764 109.45887 109.60185 109.64842 109.67974 109.88910
 109.89416 110.06747 110.08359


              NET ATOMIC CHARGES AND DIPOLE CONTRIBUTIONS

  ATOM NO.   TYPE          CHARGE      No. of ELECS.   s-Pop       p-Pop       d-Pop       
    1          C          -0.208809        4.2088     1.11849     3.09032
    2          C          -0.108655        4.1087     1.11693     2.99173
    3          C           0.062171        3.9378     1.08746     2.85037
    4          C          -0.170260        4.1703     1.09047     3.07979
    5          C           0.014117        3.9859     1.11243     2.87345
    6          C          -0.250116        4.2501     1.08598     3.16414
    7          C           0.359942        3.6401     1.08047     2.55959
    8          C          -0.061010        4.0610     1.09412     2.96689
    9          N          -0.294177        5.2942     1.70058     3.59360
   10          C           0.029366        3.9706     1.11481     2.85582
   11          O          -0.404561        6.4046     1.81442     4.59015
   12          I           0.004956        6.9950     1.97798     5.01206     0.00500
   13          I          -0.039662        7.0397     1.97903     5.05562     0.00502
   14          H           0.170397        0.8296     0.82960
   15          H           0.185367        0.8146     0.81463
   16          H           0.184799        0.8152     0.81520
   17          H           0.172253        0.8277     0.82775
   18          H           0.353882        0.6461     0.64612
 DIPOLE           X         Y         Z       TOTAL
 POINT-CHG.    -2.930    -0.364    -0.203     2.960
 HYBRID        -0.184     0.485    -0.052     0.522
 SUM           -3.114     0.121    -0.256     3.127


          ATOMIC ORBITAL ELECTRON POPULATIONS

     Atom    s        px        py        pz      x^2-y^2     xz        z^2       yz        xy
    1  C   1.11849   1.08685   0.98914   1.01434
    2  C   1.11693   0.97270   1.07234   0.94669
    3  C   1.08746   0.96054   0.94226   0.94758
    4  C   1.09047   0.99290   0.91167   1.17521
    5  C   1.11243   0.99250   1.00207   0.87888
    6  C   1.08598   0.94047   0.99498   1.22869
    7  C   1.08047   0.89992   0.81288   0.84679
    8  C   1.09412   0.96071   0.93077   1.07540
    9  N   1.70058   1.10449   1.33600   1.15311
   10  C   1.11481   0.92899   1.01133   0.91550
   11  O   1.81442   1.48566   1.26814   1.83634
   12  I   1.97798   1.06058   1.97376   1.97772   0.00223   0.00063   0.00092   0.00004   0.00118
   13  I   1.97903   1.92975   1.14824   1.97762   0.00191   0.00007   0.00093   0.00059   0.00152
   14  H   0.82960
   15  H   0.81463
   16  H   0.81520
   17  H   0.82775
   18  H   0.64612

 **********************
 *                    *
 * JOB ENDED NORMALLY *
 *                    *
 **********************



 TOTAL JOB TIME:             0.20 SECONDS

 == MOPAC DONE ==
